# vtk DataFile Version 2.0
Unstructured Grid Example
ASCII
DATASET UNSTRUCTURED_GRID

POINTS 385 float
52.17119 9.40902 0
49.96022 5.57951 0
47.74925 1.75 0
52.17119 1.75 0
56.59312 1.75 0
54.38216 5.57951 0
34.23404 36.97706 0
29.81211 36.97706 0
25.39017 36.97706 0
27.60114 33.14755 0
29.81211 29.31804 0
32.02308 33.14755 0
47.74925 27.56804 0
52.17119 27.56804 0
56.59312 27.56804 0
54.38216 31.39755 0
52.17119 35.22706 0
49.96022 31.39755 0
37.26513 9.40902 0
35.05416 5.57951 0
32.8432 1.75 0
37.26513 1.75 0
41.68707 1.75 0
39.4761 5.57951 0
10.48412 14.65902 0
14.90605 14.65902 0
19.32799 14.65902 0
17.11702 18.48853 0
14.90605 22.31804 0
12.69508 18.48853 0
44.71816 48.13608 0
42.50719 44.30657 0
40.29622 40.47706 0
44.71816 40.47706 0
49.1401 40.47706 0
46.92913 44.30657 0
10.48412 40.47706 0
14.90605 40.47706 0
19.32799 40.47706 0
17.11702 44.30657 0
14.90605 48.13608 0
12.69508 44.30657 0
19.32799 11.15902 0
14.90605 11.15902 0
10.48412 11.15902 0
12.69508 7.32951 0
14.90605 3.5 0
17.11702 7.32951 0
55.20228 11.15902 0
57.41324 7.32951 0
59.62421 3.5 0
61.83518 7.32951 0
64.04615 11.15902 0
59.62421 11.15902 0
44.71816 29.31804 0
46.92913 33.14755 0
49.1401 36.97706 0
44.71816 36.97706 0
40.29622 36.97706 0
42.50719 33.14755 0
22.35908 9.40902 0
20.14811 5.57951 0
17.93714 1.75 0
22.35908 1.75 0
26.78102 1.75 0
24.57005 5.57951 0
7.45303 42.22706 0
9.664 46.05657 0
11.87496 49.88608 0
7.45303 49.88608 0
3.03109 49.88608 0
5.24206 46.05657 0
17.93714 49.88608 0
20.14811 46.05657 0
22.35908 42.22706 0
24.57005 46.05657 0
26.78102 49.88608 0
22.35908 49.88608 0
3.03109 24.06804 0
5.24206 20.23853 0
7.45303 16.40902 0
9.664 20.23853 0
11.87496 24.06804 0
7.45303 24.06804 0
3.03109 1.75 0
7.45303 1.75 0
11.87496 1.75 0
9.664 5.57951 0
7.45303 9.40902 0
5.24206 5.57951 0
10.48412 36.97706 0
12.69508 33.14755 0
14.90605 29.31804 0
17.11702 33.14755 0
19.32799 36.97706 0
14.90605 36.97706 0
7.45303 35.22706 0
5.24206 31.39755 0
3.03109 27.56804 0
7.45303 27.56804 0
11.87496 27.56804 0
9.664 31.39755 0
37.26513 35.22706 0
35.05416 31.39755 0
32.8432 27.56804 0
37.26513 27.56804 0
41.68707 27.56804 0
39.4761 31.39755 0
22.35908 35.22706 0
20.14811 31.39755 0
17.93714 27.56804 0
22.35908 27.56804 0
26.78102 27.56804 0
24.57005 31.39755 0
56.59312 49.88608 0
52.17119 49.88608 0
47.74925 49.88608 0
49.96022 46.05657 0
52.17119 42.22706 0
54.38216 46.05657 0
29.81211 48.13608 0
27.60114 44.30657 0
25.39017 40.47706 0
29.81211 40.47706 0
34.23404 40.47706 0
32.02308 44.30657 0
55.20228 36.97706 0
57.41324 33.14755 0
59.62421 29.31804 0
61.83518 33.14755 0
64.04615 36.97706 0
59.62421 36.97706 0
41.68707 49.88608 0
37.26513 49.88608 0
32.8432 49.88608 0
35.05416 46.05657 0
37.26513 42.22706 0
39.4761 46.05657 0
55.20228 40.47706 0
59.62421 40.47706 0
64.04615 40.47706 0
61.83518 44.30657 0
59.62421 48.13608 0
57.41324 44.30657 0
44.71816 3.5 0
46.92913 7.32951 0
49.1401 11.15902 0
44.71816 11.15902 0
40.29622 11.15902 0
42.50719 7.32951 0
64.04615 14.65902 0
61.83518 18.48853 0
59.62421 22.31804 0
57.41324 18.48853 0
55.20228 14.65902 0
59.62421 14.65902 0
44.71816 22.31804 0
42.50719 18.48853 0
40.29622 14.65902 0
44.71816 14.65902 0
49.1401 14.65902 0
46.92913 18.48853 0
26.78102 24.06804 0
22.35908 24.06804 0
17.93714 24.06804 0
20.14811 20.23853 0
22.35908 16.40902 0
24.57005 20.23853 0
37.26513 16.40902 0
39.4761 20.23853 0
41.68707 24.06804 0
37.26513 24.06804 0
32.8432 24.06804 0
35.05416 20.23853 0
52.17119 16.40902 0
54.38216 20.23853 0
56.59312 24.06804 0
52.17119 24.06804 0
47.74925 24.06804 0
49.96022 20.23853 0
34.23404 11.15902 0
29.81211 11.15902 0
25.39017 11.15902 0
27.60114 7.32951 0
29.81211 3.5 0
32.02308 7.32951 0
34.23404 14.65902 0
32.02308 18.48853 0
29.81211 22.31804 0
27.60114 18.48853 0
25.39017 14.65902 0
29.81211 14.65902 0
52.17119 12.90902 0
53.92119 9.87793 0
59.62421 0 0
57.87421 3.03109 0
50.42119 9.87793 0
44.71816 0 0
46.46816 3.03109 0
37.26513 38.72706 0
35.51513 35.69597 0
29.81211 25.81804 0
31.56211 28.84913 0
22.35908 38.72706 0
24.10908 35.69597 0
28.06211 28.84913 0
33.76513 38.72706 0
25.85908 38.72706 0
44.71816 25.81804 0
46.46816 28.84913 0
52.17119 38.72706 0
50.42119 35.69597 0
59.62421 25.81804 0
57.87421 28.84913 0
53.92119 35.69597 0
48.21816 25.81804 0
56.12421 25.81804 0
37.26513 12.90902 0
39.01513 9.87793 0
42.96816 3.03109 0
35.51513 9.87793 0
29.81211 0 0
31.56211 3.03109 0
7.45303 12.90902 0
10.95303 12.90902 0
22.35908 12.90902 0
18.85908 12.90902 0
9.20303 15.94011 0
14.90605 25.81804 0
13.15605 22.78695 0
20.60908 15.94011 0
16.65605 22.78695 0
40.76513 38.72706 0
48.67119 38.72706 0
44.71816 51.63608 0
46.46816 48.60499 0
50.42119 41.75815 0
42.96816 48.60499 0
39.01513 41.75815 0
7.45303 38.72706 0
9.20303 41.75815 0
14.90605 51.63608 0
13.15605 48.60499 0
20.60908 41.75815 0
16.65605 48.60499 0
10.95303 38.72706 0
18.85908 38.72706 0
20.60908 9.87793 0
14.90605 0 0
16.65605 3.03109 0
9.20303 9.87793 0
13.15605 3.03109 0
55.67119 12.90902 0
67.07724 12.90902 0
63.57724 12.90902 0
42.96816 28.84913 0
39.01513 35.69597 0
24.10908 9.87793 0
28.06211 3.03109 0
24.10908 41.75815 0
29.81211 51.63608 0
28.06211 48.60499 0
0 25.81804 0
3.5 25.81804 0
11.40605 25.81804 0
9.20303 35.69597 0
13.15605 28.84913 0
16.65605 28.84913 0
20.60908 35.69597 0
33.31211 25.81804 0
41.21816 25.81804 0
18.40605 25.81804 0
26.31211 25.81804 0
59.62421 51.63608 0
57.87421 48.60499 0
53.92119 41.75815 0
31.56211 48.60499 0
35.51513 41.75815 0
55.67119 38.72706 0
67.07724 38.72706 0
63.57724 38.72706 0
48.67119 12.90902 0
40.76513 12.90902 0
57.87421 22.78695 0
53.92119 15.94011 0
42.96816 22.78695 0
39.01513 15.94011 0
46.46816 22.78695 0
50.42119 15.94011 0
28.06211 22.78695 0
24.10908 15.94011 0
35.51513 15.94011 0
31.56211 22.78695 0
33.76513 12.90902 0
25.85908 12.90902 0
47.74925 -1.75 0
48.21816 0 0
56.12421 0 0
56.59312 -1.75 0
52.17119 -1.75 0
32.8432 -1.75 0
33.31211 0 0
41.21816 0 0
41.68707 -1.75 0
37.26513 -1.75 0
17.93714 -1.75 0
18.40605 0 0
26.31211 0 0
26.78102 -1.75 0
22.35908 -1.75 0
5.70303 41.75815 0
4.42194 40.47706 0
0 51.63608 0
-0 48.13608 0
1.75 48.60499 0
2.21097 44.30657 0
-0 22.31804 0
1.75 22.78695 0
5.70303 15.94011 0
4.42194 14.65902 0
2.21097 18.48853 0
0 0 0
3.03109 -1.75 0
3.5 0 0
11.40605 0 0
11.87496 -1.75 0
7.45303 -1.75 0
1.75 3.03109 0
-0 3.5 0
4.42194 11.15902 0
5.70303 9.87793 0
2.21097 7.32951 0
4.42194 36.97706 0
5.70303 35.69597 0
1.75 28.84913 0
-0 29.31804 0
2.21097 33.14755 0
55.8977 6.454509999999999 0
48.444675 6.454509999999999 0
33.53862000000001 32.27255 0
26.085594999999998 32.272549999999995 0
29.812109999999997 38.72706000000001 0
48.444675000000004 32.27255 0
55.89770000000001 32.27255 0
52.171189999999996 25.818040000000003 0
40.991645 6.454509999999999 0
33.53862000000001 6.454509999999999 0
14.90605 12.909020000000002 0
11.17954 19.363530000000004 0
18.632565 19.363530000000004 0
44.718160000000005 38.72706000000001 0
48.444675000000004 45.18157000000001 0
40.991645000000005 45.18157000000001 0
11.17954 45.18157000000001 0
18.632565 45.18157000000001 0
14.90605 38.72706000000001 0
18.632565 6.454509999999999 0
11.17954 6.454509999999999 0
59.624210000000005 12.909020000000002 0
40.991645 32.27255 0
26.085594999999998 6.454509999999999 0
26.085594999999998 45.18157000000001 0
7.45303 25.818040000000003 0
11.17954 32.272549999999995 0
18.632565 32.27255 0
37.26512999999999 25.818040000000003 0
22.35908 25.818040000000003 0
55.8977 45.18157000000001 0
33.538619999999995 45.18157000000001 0
59.624210000000005 38.72706000000001 0
44.71816 12.909020000000002 0
55.8977 19.363530000000004 0
40.991645000000005 19.363530000000004 0
48.444675000000004 19.363530000000004 0
26.085595 19.363530000000004 0
33.538619999999995 19.363530000000004 0
29.812109999999997 12.909020000000002 0
52.171189999999996 0 0
37.26512999999999 0 0
22.35908 0 0
3.726515 45.18157000000001 0
3.726515 19.363530000000004 0
7.453030000000001 0 0
3.726515 6.454509999999999 0
3.726515 32.27255 0

CELLS 368 2096
6 0 2 4 1 3 5
6 6 8 10 7 9 11
6 12 14 16 13 15 17
6 18 20 22 19 21 23
6 24 26 28 25 27 29
6 30 32 34 31 33 35
6 36 38 40 37 39 41
6 42 44 46 43 45 47
6 48 50 52 49 51 53
6 54 56 58 55 57 59
6 60 62 64 61 63 65
6 66 68 70 67 69 71
6 72 74 76 73 75 77
6 78 80 82 79 81 83
6 84 86 88 85 87 89
6 90 92 94 91 93 95
6 96 98 100 97 99 101
6 102 104 106 103 105 107
6 108 110 112 109 111 113
6 114 116 118 115 117 119
6 120 122 124 121 123 125
6 126 128 130 127 129 131
6 132 134 136 133 135 137
6 138 140 142 139 141 143
6 144 146 148 145 147 149
6 150 152 154 151 153 155
6 156 158 160 157 159 161
6 162 164 166 163 165 167
6 168 170 172 169 171 173
6 174 176 178 175 177 179
6 180 182 184 181 183 185
6 186 188 190 187 189 191
4 0 0 0 0
4 0 0 0 0
8 48 0 4 50 193 5 195 49
4 0 0 0 0
4 0 0 0 0
8 0 146 144 2 196 145 198 1
4 0 0 0 0
4 0 0 0 0
8 102 6 10 104 200 11 202 103
4 0 0 0 0
4 0 0 0 0
8 8 108 112 10 204 113 205 9
4 0 0 0 0
4 0 0 0 0
8 6 124 122 8 206 123 207 7
4 0 0 0 0
4 0 0 0 0
8 54 12 16 56 209 17 211 55
4 0 0 0 0
4 0 0 0 0
8 14 128 126 16 213 127 214 15
4 0 0 0 0
4 0 0 0 0
8 12 178 176 14 215 177 216 13
4 0 0 0 0
4 0 0 0 0
8 148 18 22 144 218 23 219 149
4 0 0 0 0
4 0 0 0 0
8 18 180 184 20 220 185 222 19
4 0 0 0 0
4 0 0 0 0
8 24 44 42 26 224 43 226 25
4 0 0 0 0
4 0 0 0 0
8 80 24 28 82 227 29 229 81
4 0 0 0 0
4 0 0 0 0
8 26 166 164 28 230 165 231 27
4 0 0 0 0
4 0 0 0 0
8 32 58 56 34 232 57 233 33
4 0 0 0 0
4 0 0 0 0
8 116 30 34 118 235 35 236 117
4 0 0 0 0
4 0 0 0 0
8 30 132 136 32 237 137 238 31
4 0 0 0 0
4 0 0 0 0
8 66 36 40 68 240 41 242 67
4 0 0 0 0
4 0 0 0 0
8 38 74 72 40 243 73 244 39
4 0 0 0 0
4 0 0 0 0
8 36 90 94 38 245 95 246 37
4 0 0 0 0
4 0 0 0 0
8 60 42 46 62 247 47 249 61
4 0 0 0 0
4 0 0 0 0
8 44 88 86 46 250 87 251 45
4 0 0 0 0
4 0 0 0 0
8 154 48 52 150 252 53 254 155
4 0 0 0 0
4 0 0 0 0
8 106 54 58 102 255 59 256 107
4 0 0 0 0
4 0 0 0 0
8 182 60 64 184 257 65 258 183
4 0 0 0 0
4 0 0 0 0
8 74 122 120 76 259 121 261 75
4 0 0 0 0
4 0 0 0 0
8 98 78 82 100 263 83 264 99
4 0 0 0 0
4 0 0 0 0
8 90 96 100 92 265 101 266 91
4 0 0 0 0
4 0 0 0 0
8 92 110 108 94 267 109 268 93
4 0 0 0 0
4 0 0 0 0
8 104 172 170 106 269 171 270 105
4 0 0 0 0
4 0 0 0 0
8 110 164 162 112 271 163 272 111
4 0 0 0 0
4 0 0 0 0
8 142 114 118 138 274 119 275 143
4 0 0 0 0
4 0 0 0 0
8 134 120 124 136 276 125 277 135
4 0 0 0 0
4 0 0 0 0
8 138 126 130 140 278 131 280 139
4 0 0 0 0
4 0 0 0 0
8 146 160 158 148 281 159 282 147
4 0 0 0 0
4 0 0 0 0
8 152 176 174 154 283 175 284 153
4 0 0 0 0
4 0 0 0 0
8 156 170 168 158 285 169 286 157
4 0 0 0 0
4 0 0 0 0
8 178 156 160 174 287 161 288 179
4 0 0 0 0
4 0 0 0 0
8 188 162 166 190 289 167 290 189
4 0 0 0 0
4 0 0 0 0
8 186 168 172 188 291 173 292 187
4 0 0 0 0
4 0 0 0 0
8 180 186 190 182 293 191 294 181
4 0 0 0 0
4 0 0 0 0
8 2 295 298 4 296 299 297 3
4 0 0 0 0
4 0 0 0 0
8 20 300 303 22 301 304 302 21
4 0 0 0 0
4 0 0 0 0
8 62 305 308 64 306 309 307 63
4 0 0 0 0
4 0 0 0 0
8 311 66 70 313 310 71 314 315
4 0 0 0 0
4 0 0 0 0
8 319 80 78 316 318 79 317 320
4 0 0 0 0
4 0 0 0 0
8 325 86 84 322 324 85 323 326
4 0 0 0 0
4 0 0 0 0
8 328 84 88 329 327 89 330 331
4 0 0 0 0
4 0 0 0 0
8 335 98 96 332 334 97 333 336
4 296 295 299 377
4 3 377 297 4
4 2 296 377 3
4 378 304 303 302
4 301 300 304 378
4 21 378 302 22
4 20 301 378 21
4 379 309 308 307
4 306 305 309 379
4 63 379 307 64
4 62 306 379 63
4 380 71 70 314
4 310 66 71 380
4 315 380 314 313
4 311 310 380 315
4 381 79 78 317
4 318 80 79 381
4 320 381 317 316
4 319 318 381 320
4 382 85 84 323
4 324 86 85 382
4 326 382 323 322
4 325 324 382 326
4 383 89 88 330
4 327 84 89 383
4 331 383 330 329
4 328 327 383 331
4 384 97 96 333
4 334 98 97 384
4 336 384 333 332
4 335 334 384 336

CELL_TYPES 368
22
22
22
22
22
22
22
22
22
22
22
22
22
22
22
22
22
22
22
22
22
22
22
22
22
22
22
22
22
22
22
22
7
7
23
7
7
23
7
7
23
7
7
23
7
7
23
7
7
23
7
7
23
7
7
23
7
7
23
7
7
23
7
7
23
7
7
23
7
7
23
7
7
23
7
7
23
7
7
23
7
7
23
7
7
23
7
7
23
7
7
23
7
7
23
7
7
23
7
7
23
7
7
23
7
7
23
7
7
23
7
7
23
7
7
23
7
7
23
7
7
23
7
7
23
7
7
23
7
7
23
7
7
23
7
7
23
7
7
23
7
7
23
7
7
23
7
7
23
7
7
23
7
7
23
7
7
23
7
7
23
7
7
23
7
7
23
7
7
23
7
7
23
7
7
23
9
9
9
9
9
9
9
9
9
9
9
9
9
9
9
9
9
9
9
9
9
9
9
9
9
9
9
9
9
9
9
9
9
9
9
9
9
9
9
9
9
9
9
9
9
9
9
9
9
9
9
9
9
9
9
9
9
9
9
9
9
9
9
9
9
9
9
9
9
9
9
9
9
9
9
9
9
9
9
9
9
9
9
9
9
9
9
9
9
9
9
9
9
9
9
9
9
9
9
9
9
9
9
9
9
9
9
9
9
9
9
9
9
9
9
9
9
9
9
9
9
9
9
9
9
9
9
9
9
9
9
9
9
9
9
9
9
9
9
9
9
9
9
9
9
9
9
9
9
9
9
9
9
9
9
9
9
9
9
9
9
9
9
9
9
9
9
9
9
9
9
9
9
9
9
9
9
9
9
9
9
9
9
9
9
9
9
9
9
9
9
9

POINT_DATA 385
SCALARS U float64 3
LOOKUP_TABLE default
0.026085595212673576 -0.0004465765119313946 0
0.02503056930762735 -0.0002842798362940713 0
0.023149700621806456 0.0002243615997622535 0
0.026085594998550888 -0.0003422127062964047 0
0.029021481706232817 0.0002243618620887492 0
0.027140620502205316 -0.00028428023220456524 0
0.01784194027735496 -0.00022436202997860416 0
0.01490605693077586 0.000342212657016681 0
0.01197016130374556 -0.0002243615515662551 0
0.013851029900053095 0.00028427951271417414 0
0.014906055043763418 0.0004465763376347467 0
0.01596107847749488 0.0002842800685283377 0
0.023149702371404644 0.00022436155029656137 0
0.026085597436512092 -0.0003422125097967714 0
0.029021480023498383 0.00022436219565168287 0
0.027140621300083025 -0.000284280014064789 0
0.026085594328723698 -0.0004465762204658715 0
0.025030569134564428 -0.0002842795034599704 0
0.018632562975706604 -0.00044657635095799293 0
0.017577538936520087 -0.00028428012935242806 0
0.015696675999880134 0.00022436203669160345 0
0.018632563828732684 -0.00034221273388652213 0
0.02156845558042719 0.00022436191149991067 0
0.019687589108712628 -0.00028427963677473073 0
0.004517137098816963 0.00022436211533002827 0
0.007453023077795521 -0.00034221267392471003 0
0.010388917791483111 0.00022436170991392237 0
0.008508049627271676 -0.00028427959032206545 0
0.007453023913100248 -0.0004465762675739101 0
0.006397997493170254 -0.00028428015120767196 0
0.022359077806933185 -0.00044657647090291455 0
0.021304054284828018 -0.000284279681654184 0
0.019423187216269934 0.00022436210607193566 0
0.02235908022995132 -0.00034221317527456603 0
0.025294972012089426 0.00022436206911884469 0
0.02341410552549827 -0.0002842792365192811 0
0.004517137901732766 0.00022436139684966214 0
0.007453024783205805 -0.0003422127664727225 0
0.010388916906216381 0.0002243618269236653 0
0.008508048375056906 -0.00028427972512267926 0
0.007453023156378035 -0.00044657638170523303 0
0.006397998350402783 -0.00028428003242814267 0
0.010388914846834432 -0.00022436189896365164 0
0.007453021868235301 0.000342212694292791 0
0.004517137104257004 -0.00022436202330493467 0
0.006397998565566901 0.0002842800931558481 0
0.007453025435870355 0.00044657632002897783 0
0.008508047629624801 0.00028427961583363 0
0.026876217718628692 -0.00022436195326812006 0
0.028757078650439638 0.00028427987103005924 0
0.02981210463162699 0.00044657630186419864 0
0.030867128340622677 0.00028427964111623033 0
0.03274799540491835 -0.00022436164521350276 0
0.029812102837949363 0.00034221257982463643 0
0.022359077394244392 0.00044657646866214193 0
0.0234141051998651 0.0002842794805241556 0
0.02529497261555835 -0.00022436189900888992 0
0.0223590807367444 0.0003422130283638854 0
0.01942318687673672 -0.00022436196650208845 0
0.02130405308528674 0.00028427943832012577 0
0.011179538359296828 -0.00044657639967240294 0
0.010124513556424193 -0.00028427955228160626 0
0.008243649577413956 0.0002243617872947676 0
0.011179540347880667 -0.0003422130124176014 0
0.014115431617384721 0.00022436199920403507 0
0.012234564125546302 -0.0002842793534370479 0
0.0037265150628870147 0.0004465760054096764 0
0.004781539818053644 0.00028427991705868574 0
0.006662399939623146 -0.00022436185537434185 0
0.003726514265093301 0.0003422125189023588 0
0.000790623166747583 -0.00022436190902349451 0
0.0026714895953428423 0.000284279160494726 0
0.008243646511567709 -0.00022436198221539812 0
0.010124513089163529 0.00028427967339278556 0
0.011179540572958172 0.0004465764416196123 0
0.01223456428170621 0.0002842795190267541 0
0.014115429057845331 -0.00022436190989369458 0
0.011179539819878237 0.0003422128969899061 0
0.0007906225079603864 -0.0002243618081795251 0
0.0026714904344464167 0.00028427961172770155 0
0.00372651263893343 0.0004465763958753327 0
0.004781540771087698 0.0002842801793761572 0
0.0066624012845049405 -0.00022436177093241357 0
0.0037265153170529374 0.00034221261604814603 0
0.0007906230904558825 0.0002243619267434344 0
0.0037265147382400474 -0.0003422125702539756 0
0.006662400050342229 0.00022436192149170387 0
0.004781540278565099 -0.00028427962335580824 0
0.003726513688362163 -0.00044657651490421585 0
0.002671490373964221 -0.0002842791132397272 0
0.004517136530471956 -0.00022436200154628944 0
0.006397998996776236 0.0002842794899512383 0
0.007453025275123857 0.00044657633680670374 0
0.008508047871998613 0.00028427952624333636 0
0.010388917234869535 -0.0002243615739653277 0
0.007453025318515231 0.00034221273139803203 0
0.0037265149566035145 -0.0004465764215087391 0
0.002671490285353428 -0.0002842796781406591 0
0.0007906212014719521 0.0002243612918433976 0
0.003726514847547034 -0.0003422127283072787 0
0.0066624012494893355 0.0002243618766477716 0
0.004781538928887713 -0.0002842801900373788 0
0.018632565088281185 -0.000446576564291356 0
0.017577538034000417 -0.00028427989359647917 0
0.015696678732315995 0.0002243618447650625 0
0.018632564323051087 -0.0003422128519296729 0
0.021568455895413938 0.0002243616988898894 0
0.01968759000829577 -0.00028427950691806825 0
0.011179538345532302 -0.00044657660426238884 0
0.01012451296820236 -0.0002842794608375347 0
0.008243647535096446 0.0002243619859727054 0
0.011179539327503363 -0.00034221310488297905 0
0.014115430711776789 0.00022436209354726496 0
0.012234563534677632 -0.0002842795234665453 0
0.029021481968507165 -0.00022436171741738138 0
0.026085595363854134 0.00034221272178677303 0
0.023149702211251545 -0.0002243617781945107 0
0.02503056851322888 0.0002842797796674579 0
0.026085594805491504 0.00044657626468926537 0
0.027140620916378783 0.0002842799123604087 0
0.014906054555870586 -0.00044657643217207825 0
0.013851031247050843 -0.00028427965131937936 0
0.011970163663024046 0.00022436167501597358 0
0.014906055326906552 -0.0003422128064046941 0
0.017841939572286865 0.0002243617454630405 0
0.01596107864782896 -0.0002842797956944486 0
0.026876217860944525 -0.00022436173977082523 0
0.028757078212241112 0.0002842802996370083 0
0.029812104596948698 0.00044657619165193853 0
0.03086712794687089 0.00028427945423767625 0
0.03274799581635651 -0.00022436174013722567 0
0.029812102722353413 0.0003422129368613777 0
0.0215684566897075 -0.00022436178251983437 0
0.018632562828489914 0.0003422127424956724 0
0.015696676773816913 -0.0002243619150495696 0
0.017577540087853352 0.0002842798384366063 0
0.018632563351251255 0.000446576425409873 0
0.019687589278304725 0.0002842794736490754 0
0.02687621848451843 0.00022436179919695613 0
0.029812103949460315 -0.00034221278716340515 0
0.03274799689189814 0.0002243614974864281 0
0.030867128781813004 -0.00028427967721022385 0
0.029812104614738478 -0.00044657635997636595 0
0.028757079754667597 -0.0002842799596847863 0
0.022359079194558706 0.00044657648340467476 0
0.023414103348026336 0.0002842793424569276 0
0.02529496995976159 -0.00022436241349766425 0
0.022359081690682917 0.0003422130479980115 0
0.019423187690613908 -0.00022436186758993762 0
0.02130405245196325 0.00028427964909775495 0
0.03274799541906255 0.00022436162973473865 0
0.030867128145897916 -0.0002842795721743047 0
0.02981210213263775 -0.0004465762965985793 0
0.028757078242999525 -0.0002842804021558016 0
0.02687621760606171 0.00022436156384949407 0
0.02981210277414143 -0.00034221267580471557 0
0.02235907945400191 -0.0004465766411957999 0
0.021304057423309763 -0.00028427970345708855 0
0.019423186720623466 0.00022436193270929285 0
0.02235907865721269 -0.0003422131890144416 0
0.025294972417840796 0.0002243619838698483 0
0.02341410470409168 -0.0002842798495536185 0
0.014115429813678478 -0.00022436211219556472 0
0.011179539137560028 0.00034221300238528843 0
0.008243646889724239 -0.00022436195837438437 0
0.010124514592129565 0.0002842795689012132 0
0.01117953834520424 0.00044657650414565617 0
0.012234563594206837 0.0002842794782783423 0
0.01863256406954865 0.00044657634947966495 0
0.0196875885830997 0.0002842795204860701 0
0.02156845426254301 -0.00022436196747435466 0
0.018632563285530507 0.0003422125700655063 0
0.015696677798069523 -0.00022436189352965133 0
0.01757753840631348 0.0002842800075217728 0
0.026085593927228645 0.00044657606458563704 0
0.02714061959641985 0.0002842798741636929 0
0.02902148122735094 -0.00022436228785930462 0
0.026085595336243154 0.00034221288323881753 0
0.023149703226091004 -0.00022436148719003014 0
0.025030570298616238 0.00028427945882247553 0
0.0178419405106904 -0.000224361923938858 0
0.014906052832954946 0.0003422128417811301 0
0.011970161352601715 -0.00022436176150079012 0
0.013851029872462547 0.0002842796648672055 0
0.014906052729098954 0.00044657639679182305 0
0.015961079470033772 0.0002842801573363083 0
0.0178419394560934 0.00022436183214626375 0
0.015961081681057775 -0.00028427970969730485 0
0.014906052186268157 -0.00044657634152631175 0
0.013851031770339566 -0.00028427958939147483 0
0.01197016298275587 0.00022436185982313648 0
0.014906054304968667 -0.0003422125835278446 0
0.02608559504407555 2.3135254438111721E-10 0
0.026563837155912286 -0.0003830662659439494 0
0.029812104925792064 -1.6211667385429408E-18 0
0.029333862448538573 0.00038306615378424857 0
0.025607351648133287 -0.0003830665245006026 0
0.022359077214504756 -2.9879136003493206E-11 0
0.02283732204219518 0.00038306623201801694 0
0.018632562852915854 -1.113006292490469E-10 0
0.018154321690028223 -0.0003830664187050899 0
0.014906054049849848 -3.160465747616137E-11 0
0.01538429928835348 0.0003830661875812461 0
0.011179540897240318 1.0228864684522915E-11 0
0.011657781317795055 -0.0003830662832098388 0
0.014427812278155329 0.0003830663046417947 0
0.017710959608738697 -2.4682252850729766E-10 0
0.012101141245268827 4.043521284946214E-11 0
0.02235907803237807 -1.0980425173712921E-11 0
0.022837321065449147 0.0003830663233412604 0
0.026085594749404563 2.230416882545612E-10 0
0.025607351367471314 -0.00038306623680290226 0
0.029812101881975354 -5.362711121524588E-11 0
0.029333862408517736 0.00038306627432615657 0
0.026563837779060236 -0.000383066181484555 0
0.023280683179917435 6.364846892809375E-11 0
0.028890500905818933 -2.5960303557445025E-10 0
0.018632564345156408 3.2812159456510614E-11 0
0.019110804201528803 -0.0003830663869287417 0
0.021880837524539794 0.00038306638899643694 0
0.018154320177994697 -0.00038306631057481857 0
0.014906054160238507 -1.0703326853295225E-10 0
0.015384294667590915 0.00038306625274505275 0
0.0037265133170732833 1.4000267411313702E-10 0
0.00464811580482798 6.456469939849357E-11 0
0.01117953911261282 -3.597941833789059E-11 0
0.010257936365931884 -1.1467485191681351E-10 0
0.004204755849539563 0.0003830662509805212 0
0.007453024318135116 1.3617418038449833E-10 0
0.006974781108667558 -0.0003830661197215377 0
0.010701296824427272 0.0003830662965462664 0
0.007931266759677905 -0.0003830662948973061 0
0.019554167891073455 3.4719831502015575E-11 0
0.025163993185462752 2.190836198979855E-10 0
0.022359076720257377 -1.0192197959094443E-10 0
0.02283732052076351 -0.0003830662734033395 0
0.02560735319199504 0.0003830663579024141 0
0.02188083609836619 -0.0003830663110092669 0
0.01911080725155917 0.00038306627630644256 0
0.0037265153085104825 2.2494494439882773E-11 0
0.004204756768501856 0.00038306611131642336 0
0.00745302539153196 2.0489726939871417E-11 0
0.00697478034662352 -0.0003830662625417805 0
0.010701297045714195 0.00038306637800312256 0
0.007931266711932106 -0.00038306627564246756 0
0.004648116875196063 -5.875765021019427E-10 0
0.010257937864286805 2.2714576313614954E-11 0
0.010701295146742396 -0.00038306639169491776 0
0.007453024882867297 7.569039378553175E-11 0
0.007931269019154245 0.0003830662953193498 0
0.004204754791113114 -0.0003830663277251645 0
0.006974780560685909 0.0003830662497534345 0
0.027007197163943765 -1.176838945304154E-10 0
0.03353861824421308 1.7316098929092208E-10 0
0.032617015112823805 4.830528951014004E-11 0
0.021880836016695493 0.0003830662364100266 0
0.019110806012814514 -0.0003830663664441231 0
0.01165778166595929 -0.0003830662355007863 0
0.014427812249172722 0.000383066301708592 0
0.011657783335674979 0.0003830662121860497 0
0.014906054130986526 -2.085683698232338E-10 0
0.014427811745947611 -0.0003830663720656387 0
-2.6522900747145885E-09 -3.4709197647107837E-11 0
0.0009216032876295797 -2.7165098230759466E-10 0
0.0065314219722139525 7.345150594521843E-11 0
0.004204757379719041 -0.0003830663868661597 0
0.0069747824327371696 0.0003830662119178688 0
0.00793126658365835 0.0003830663675661091 0
0.010701296779444536 -0.00038306633206119597 0
0.01582765819147256 1.4375808377910249E-11 0
0.02143747672071107 -9.541589187592875E-11 0
0.008374626418271882 7.861613909778548E-11 0
0.01398445200185331 -7.91618197859209E-12 0
0.029812104950270854 -1.9489403076524495E-11 0
0.029333862286424345 -0.0003830662366965717 0
0.02656383660036781 0.000383066400839541 0
0.015384297767188956 -0.00038306639396000415 0
0.01815432107313838 0.00038306623074651103 0
0.027007198351661335 1.3060988922342087E-11 0
0.033538619668087424 4.999140760641313E-11 0
0.032617017653031696 8.003695460296473E-11 0
0.025163990619141978 -8.2964545715207E-11 0
0.019554165706652693 -7.449702367576944E-12 0
0.02933386154380417 -0.00038306631892950254 0
0.02656383790895643 0.00038306614672784374 0
0.021880837064074433 -0.00038306633925050507 0
0.019110806199042357 0.000383066204369384 0
0.02283732378544441 -0.00038306635078983093 0
0.025607352161638185 0.0003830662295149235 0
0.014427811362301271 -0.00038306634333997125 0
0.011657781660354548 0.0003830662985857867 0
0.018154320837233815 0.0003830662483912039 0
0.015384297532798397 -0.00038306624667691034 0
0.01771096123694855 -3.1737167147799505E-13 0
0.01210114190046084 1.0192150265040875E-10 0
0.02314970276387439 -0.00022436172201929495 0
0.023280681702719058 4.4036801928517416E-11 0
0.028890501855497113 1.616249549018893E-10 0
0.02902148186600753 -0.00022436161554015592 0
0.026085595539311293 0.00034221283044736387 0
0.01569667776348825 -0.00022436182684994514 0
0.015827657098127133 -2.1455884432423217E-11 0
0.021437476737426464 9.829512941442187E-11 0
0.021568456776592554 -0.00022436169602101536 0
0.018632562478874383 0.0003422128836590222 0
0.008243647065182968 -0.0002243619126348766 0
0.008374628921324276 -1.621410438638199E-11 0
0.013984451893422647 1.1754517004929424E-10 0
0.014115429290792743 -0.00022436181667708573 0
0.01117953910758205 0.0003422130514519771 0
0.0032482730848934754 0.0003830661157000636 0
0.0029358916290066336 0.00022436155742066699 0
-2.4478679160352008E-11 -1.9489403964271944E-11 0
-1.4348559742704409E-10 -0.00044657635293103044 0
0.00047824239856666517 -0.0003830663055131705 0
0.0010550242171703985 -0.0002842796014558405 0
-1.7910795331946023E-09 -0.00044657631924226594 0
0.0004782412311056186 -0.00038306626515944393 0
0.0032482704797592602 0.0003830661739047771 0
0.002935890215252878 0.0002243617263941934 0
0.0010550223892967737 -0.00028427955952456884 0
-1.5406352569947576E-16 1.1758487437245222E-17 0
0.0007906233816487823 -0.00022436183609774504 0
0.0009216028432770401 -6.338554404657429E-11 0
0.006531419993873713 1.3252835889257172E-10 0
0.006662399678164638 -0.00022436178992264088 0
0.003726514059873269 0.00034221265031348687 0
0.0004782421039384421 0.0003830661076614614 0
-4.0621429030478573E-10 0.00044657629064782 0
0.0029358905515455835 -0.00022436176949441335 0
0.003248270108993517 -0.00038306607843305947 0
0.0010550238067271295 0.00028427955762939407 0
0.002935891160545207 -0.00022436183680440622 0
0.0032482728437958647 -0.00038306616984861883 0
0.0004782430018182531 0.00038306600772282785 0
-2.57004403893382E-10 0.0004465761645021446 0
0.0010550224869121693 0.00028427935572307916 0
0.02794884956125739 -1.6135546173387354E-10 0
0.024222336925790997 -1.8259433204261162E-10 0
0.01676930895950961 7.487154510743207E-11 0
0.013042797164136038 -6.349854954454566E-11 0
0.014906055351742109 -1.3762120308906563E-10 0
0.024222336706192223 5.693028619596467E-11 0
0.02794885064742223 8.244017924916025E-11 0
0.026085596717159563 9.601901237543502E-11 0
0.020495820283045633 -3.689380401118887E-11 0
0.01676930857222571 -5.456958666947946E-11 0
0.007453021848047466 9.385123158223846E-12 0
0.0055897688773936405 -3.8461024946465083E-11 0
0.00931628216687525 -6.913767030668899E-12 0
0.022359081341452355 -2.397356513067668E-11 0
0.024222337166801437 2.9264595450715844E-10 0
0.020495822190488584 -1.9086873138322684E-10 0
0.005589768626635662 7.540765201933392E-11 0
0.009316280824153294 4.915971902014031E-11 0
0.007453025277279293 -2.120337357026849E-10 0
0.009316280621118925 3.141630518558279E-11 0
0.0055897680282575735 2.7008627214060443E-10 0
0.029812102407261357 1.854500545641312E-11 0
0.020495821247877202 -8.50566622342952E-12 0
0.013042797941974878 1.3011331541270404E-10 0
0.013042798342765288 -8.972856041077754E-11 0
0.0037265161513650984 -5.257411213733902E-11 0
0.005589769366137915 -3.8511707741556954E-10 0
0.009316280003996397 1.4317434228212217E-11 0
0.018632564588297 -1.0211486151556932E-10 0
0.011179539705025304 -1.8136372042848112E-11 0
0.027948849810605372 6.178617730293046E-11 0
0.01676931022469842 -1.6148484106989422E-11 0
0.02981210407482398 1.6720412470490505E-10 0
0.0223590791396352 -2.458822389943792E-11 0
0.027948849922770226 -1.1109119554169114E-10 0
0.02049582350808387 -7.730577053608086E-11 0
0.02422233821860467 -2.360204390055524E-10 0
0.013042798361624424 -5.5495387609296246E-11 0
0.016769310851206802 1.631268893565168E-10 0
0.014906054062131155 1.7829627021754418E-10 0
0.026085595308558876 1.3383347004952174E-10 0
0.0186325635414833 6.9757341179463306E-12 0